50
Lattice="10.985501777928953 0.0 0.0 0.0 10.985501777928953 0.0 0.0 0.0 10.985501777928953" Properties=species:S:1:pos:R:3:momenta:R:3:forces:R:3:energies:R:1 energy=-314.3250732421875 stress="0.006824536714702845 -0.00017289446259383112 4.135695053264499e-05 -0.00017289446259383112 0.0007463218062184751 -0.0008693243726156652 4.135695053264499e-05 -0.0008693243726156652 0.005830190610140562" free_energy=-314.3250732421875 pbc="T T T"
Si       3.03844488       0.64868705      -0.76902484      -3.66980947      -0.45571013       1.90333875       0.00137617       0.03612062      -0.00420421      -6.99221611
O        0.14903000      -4.27412430       2.79140537       0.55682095      -0.59717127       3.09023777      -0.01037866      -0.01218237      -0.00453293      -7.52665472
O        3.14042254       1.71160613       0.61007467      -2.24817376       2.40412148       0.40897406      -0.00679138      -0.02917773       0.00072691      -8.12682724
O        2.07772219       1.01896819       8.97478972      -4.62770318      -3.39596683       1.67575084       0.00003499      -0.00134820      -0.00275773      -8.06874275
Si       2.34270156       0.58621169      -3.67235837      -1.24963145      -1.38257076       4.11421822      -0.00309332      -0.02323336       0.00367381      -7.81105375
O       -2.19419231       3.43088187       5.12025655       0.66511308      -3.41735083       0.88191976      -0.02833757      -0.00727761      -0.00075269      -7.39577198
O        1.43709120       1.78701438       5.16634280       3.04827688      -2.05823902      -0.25896346       0.01910997       0.01941487       0.00523378      -5.19976711
O        2.00387884       2.10866672       6.51292446       5.10603560      -5.74504943      -1.45878584       0.01145485      -0.01563853       0.01496732      -6.09674501
O        2.56086969      10.44082671       0.40721420      -0.70743943       4.70524488       1.83601077      -0.00791854      -0.00979400       0.00143817      -8.38986301
Si      -3.43696403       2.73254175       4.39248661      -9.41578821       7.35350065      -0.88026455      -0.00462165       0.02519163       0.01390246      -7.03412724
Bi      -1.02824073       5.56675596       4.26948024      -6.25321475      -8.96658997     -16.71343242       0.01384106      -0.00651100       0.01527679      -3.96043491
Li      -0.47486115       2.56885175       4.85353538       0.26947276       0.24722965       5.11713678       0.01217354      -0.00595266      -0.00108283      -3.85095692
O        2.59252835       8.73581400      -2.09617611       1.69053233      -1.15737919      -2.31308333       0.01151839      -0.00763956       0.01579882      -6.60907841
Mg       2.56459068       8.43392099      -0.14343458      -2.58314811       0.39732962       6.04973008       0.01019305       0.03303056      -0.01263613      -3.61161900
Li       1.59994995       8.83619460       7.33744444       2.68374909      -0.79563433      -0.20348157      -0.01500510       0.01583022      -0.00215514      -3.71651244
Li      -4.89498345       8.58663253      15.41211541      -1.69667077      -0.84906342       0.76418673      -0.00807010      -0.03032658      -0.02562910      -3.79509044
O        1.33149764      -0.48242622      -4.29647251      -1.32220698      -2.53477967       1.44514022      -0.01233536       0.00363067       0.03530652      -6.92893744
O        1.71506725      -2.49116337       4.18749826      -2.64585959      -3.17049440      -0.87666384       0.02341612      -0.00356034       0.02294150      -7.05915165
O       -3.22476103       1.65160084       3.28596827      -6.51487644      -0.10598792       5.91597624      -0.00766854       0.00111422      -0.00268638      -6.56182957
Si       3.41694450       0.35707247      12.55532536      -1.52163887       0.16293508       1.21402961      -0.01358786      -0.04486972       0.00263497      -6.24949265
Mg       2.15976791       3.60011796       4.65318513       7.22694411      -1.44200932       1.05430974       0.00433332       0.00493893      -0.00532092      -3.90109587
Si       1.46205366       7.60297354       2.92542964      -3.54217856      -2.65301625       1.16106095       0.00531568       0.02280190       0.00475863      -5.82144547
O        3.88912546       0.14104727       7.16517544       0.93098591       2.03534184       3.45391242       0.00460202       0.00078288      -0.01363457      -7.05590963
O        4.53387338       0.18537975       9.84623647       4.67490313      -2.78830705       1.10550105       0.03939682      -0.02727163      -0.01089093      -6.80427027
O        4.52072947       8.15534604      -0.27876168       1.78395088       0.26877094      -1.07233038      -0.01996064       0.00410964      -0.00668260      -6.59060907
Li       1.73909984      10.35069066       4.75908965       1.59152751       2.58163749      -2.46726532       0.01714240       0.01189458       0.01361936      -4.11359978
O        5.58594083       5.82356695       2.09754821       0.55567161      -4.55861972       0.50407598       0.00784625       0.02100586       0.03511912      -8.09609222
O        2.42543960       7.53097403      12.61399047      -0.16869148       2.73140925      -2.10755959       0.01582824      -0.00221950      -0.02065212      -8.44555187
O        3.01349221      10.87544894       3.10583624       1.72630889       3.20452732       0.39576472       0.01050377       0.01817131       0.00802517      -8.00514793
Li       4.73191189       6.30195675       5.44357446       0.47817412      -2.89495029       1.87579802      -0.00833396       0.03821048      -0.00522945      -3.79344606
O        0.38820924       4.07486930       4.02739247      -4.04728260       2.65860712      -0.09306377      -0.01142995       0.00634183      -0.02425840      -6.53709507
Bi       4.62264044       9.25565439       8.81790575       2.12243232      21.06336887      -9.78185424       0.01705401      -0.01626531       0.02382815      -4.21949863
O        4.83642687      -2.29711733       2.94470975       4.55893699      -4.11208904       1.31685238      -0.01307175       0.04231244      -0.00154012      -7.58135557
Li       5.28191801       0.65618493       6.03151727      -0.78290847      -2.43135806      -1.09690502      -0.02644575      -0.00422889       0.00981896      -4.13507462
O        3.96822686       3.09613103       3.65290337       3.03092251       6.95088858      -0.83049256       0.00716482      -0.02466571       0.00309582      -7.80294323
Li       6.63972390       1.39697647      12.80274976       1.88749759       2.74174875       1.32964982      -0.02337389       0.00609919       0.00248514      -4.25919151
O        6.05782247       2.96964875       0.93956674       2.32410946       0.31461960      -2.10489883       0.01157703      -0.02710503      -0.03103357      -4.95928192
O        6.13067245       2.33894310       5.37895789      -0.84616329       1.02416094       2.21461529       0.00692308       0.00272462      -0.00357997      -8.03553104
O        6.44197418       4.13761447       3.89933894      -3.42535969       0.28675760      -1.13718856      -0.00671482      -0.00088739       0.01156148      -8.77484131
O        3.24528603       5.15859578       5.34873294       3.42022495       0.75147482       1.78704720       0.02005103      -0.02016971      -0.00253104      -4.96650410
Bi       4.42048476       3.94227933       1.41975314      -0.93469082      -5.37688358      -5.04535805      -0.04039952       0.00158487      -0.01946841      -4.14098644
O        8.27508027       5.68893030       2.87114429       0.55897772       2.80056158       1.50616809       0.01248654       0.02844864       0.01195252      -7.02552891
Si       6.71905817       5.76584095       3.32062596       1.63825523       0.40793979      -1.38986290       0.00725949      -0.00761351      -0.02529217      -7.56323147
O        4.49378865       4.45300782       5.92008538       2.01731958      -2.73140427      -4.02336896      -0.00365388       0.00388220      -0.00570774      -6.29694080
Si       4.65005778      10.23425693       3.31419283      -3.53511759       8.67705068       0.52723010       0.03191367      -0.01721594      -0.01403415      -7.18702745
Mg       4.62001492       7.48148726       1.52226944      -3.63514903       2.04810650       1.68803155      -0.00959954       0.00161283       0.00570603      -3.87152338
O        6.31719222       6.72950717       4.54264336       8.01703355       1.40376646      -2.25792748      -0.03258001      -0.03042533      -0.01244497      -7.23059177
Si       5.11093720       3.46234796       4.73640117       0.34810128     -10.70212394      -0.44300281       0.00942767       0.02545395       0.00106952      -6.84374809
O        5.42073917      -0.54727742       4.68039187       2.06286910       1.87892786       0.20219377      -0.01992840       0.00167406      -0.03977016      -7.21185350
O        5.03837069       0.16809710       1.90985715       0.39855537      -4.77727882       2.01689255       0.00135648      -0.00080311       0.03556716      -8.07032585
