500
Lattice="19.834961243285626 0.0 0.0 0.0 19.834961243285626 0.0 0.0 0.0 19.834961243285626" Properties=species:S:1:pos:R:3:forces:R:3:energies:R:1 energy=-2499.602294921875 stress="-0.006859851069748402 -0.0007636531954631209 0.0007812210242263973 -0.0007636531954631209 -0.006044147070497274 0.00221076887100935 0.0007812210242263973 0.00221076887100935 -0.003310331143438816" free_energy=-2499.602294921875 pbc="T T T"
O        0.47158450      -0.39051365       0.30192227       0.04300669      -1.55591464      -0.46916276      -6.46735573
Mg       0.16471363       0.13917985       2.21248051      -0.40407452       0.52262932      -1.08303320      -3.08370256
O        0.37037440      -0.03127187       4.97628665      -0.76203024       0.26494372       0.55072057      -8.77255440
Si       0.63398778      -0.27663529       6.71622721       1.09359741       0.19386804      -0.38786715      -4.21413803
Bi      -0.17222170      -0.52065152       9.95454590      -0.33026612       0.15315896       2.18957305      -4.10948706
O       -0.44637704      -0.50549475      12.09958178      -0.58298439       0.63881111      -1.39763844      -5.13269806
O       -0.39768372      -0.76493485      15.26031194       0.25313151      -0.12200911      -0.90326691      -3.77630925
Bi       0.01786692       0.14688595      17.00574951      -0.42325258       0.07382995       0.51063591      -4.61712456
Mg      -0.25540359       2.49114924      -0.41182815      -0.42850074       0.01154783       0.36333629      -4.59637356
O       -0.19598179       2.08046388       2.17203755       0.34918404      -0.07807091       0.21260874      -7.74758863
Li       0.19596858       3.28814924       4.65261041       0.82996774      -0.41464496      -0.43785590      -3.53973842
Si      -1.03910973       2.97255683       6.74875100      -0.49256018       1.35852647       1.38858128      -4.67558908
O       -0.39724576       1.68157217       9.29943707      -0.82720494       0.68137026       1.23339796      -7.47448730
Mg      -0.10557191       3.01544754      12.53963100      -0.15394329      -0.01111639       0.27785239      -2.75101185
O       -0.35021897       2.29675187      14.22188605      -0.67965108      -0.43419632      -0.02666000      -4.50861311
O       -0.34487336       2.06979330      17.56059966       0.09350098      -0.12327725      -0.65174115      -5.35351706
O        0.27612740       4.34992990       0.22076224      -0.38100082      -0.31293285       0.17799878      -6.79656887
Li      -0.30381901       4.60079206       2.41196311      -0.50999546      -0.11731279      -1.01267695      -4.01158667
O        0.37470619       5.30058445       4.33793896      -0.30720013      -0.06992233      -0.46103701      -5.81959248
O       -0.15584018       4.82918119       7.92944977      -0.34608114      -0.80329031      -0.36978683      -4.93496466
O       -0.16215520       4.84102450       9.21547909      -0.20601448      -0.17564288      -0.27628329      -4.90179062
O       -0.73802241       4.84358963      12.72826956       0.02338472      -0.59484583      -0.92400885      -7.66430807
O       -0.32439459       5.40861665      15.15343535       0.09618203       0.00037374       0.16936502      -4.75558090
O       -0.22173306       5.18230173      17.88322055       0.19469190       0.00962114      -0.57075328      -4.74470997
Mg       0.21121211       7.79829097      -1.04081428       0.62242198      -1.63454771       0.23873501      -3.47836947
O        0.41271179       7.61930094       2.25434881       0.16635445       0.68943393      -0.30366397      -6.21432018
O        0.05035560       6.42990294       4.87427876       0.15904915      -0.34309328      -0.02543613      -4.29422951
Si       0.53039417       8.19982531       7.64357301      -1.40897977       0.80384541      -0.10552984      -4.95746565
Bi      -0.35640712       7.35420395      10.50926563      -0.18524840       0.11132839      -0.33897352      -4.54783583
O        0.35435467       7.45089010      12.39129469       0.64558524       0.01057884      -0.26403907      -5.04276848
O        0.27245362       8.46528162      14.68233863       1.15818524       0.91590273       0.44680449      -7.25502443
O       -0.63861903       7.56285938      17.01841120      -1.46228743       1.39606285       0.87624657      -7.24263954
O        0.30813100       9.53178154      -0.05204465       0.17802799      -0.98104000       0.35678223      -8.97386169
Si      -0.14373225       9.31773421       1.88980090       0.38015747       0.26867008      -0.82154822      -4.88207388
Li      -0.36300665       9.64699781       4.99423875      -0.67000377       0.64050853       0.55490303      -3.48247790
O        0.42590617      10.75898656       7.22693241       0.71274126      -0.27536243      -0.28250843      -6.61380911
O       -0.06779303       9.11119509       8.85055559      -1.32594121      -1.19138086       1.08646572      -7.50856304
Mg      -0.03462144       9.28975100      12.95938761      -0.78642017      -1.16870046      -1.11620903      -3.27234936
Si      -0.38835023       9.68331694      15.45019873      -0.85739923       0.18114376       0.95393902      -4.67467117
Li      -0.43653735      10.08633363      17.81189445       0.29371965      -1.01233125       0.16596712      -2.16932011
O        0.04815728      11.91985665       1.26718064      -0.70674670      -0.59708291       0.88858610      -5.69866467
Mg      -0.41853002      12.49943502       3.07031192       0.17079681       0.03898470      -0.47508192      -2.82074189
O       -0.37697850      11.94631251       5.11520737       0.41915178       0.31368509       0.37296945      -7.67037249
Si      -0.34741529      12.12550061       7.04352180       0.48202363       0.26676095      -1.38789284      -5.90094471
Li      -0.46055549      12.24316264       9.66907883       0.30919012      -1.38374615      -0.04280291      -3.11186647
Mg       0.23952369      12.16533729      12.20769277      -1.52841437       0.38129348       0.52289283      -1.39532089
Li       0.27261971      11.92655614      15.00854457      -0.55917996       0.00921108       0.05056510      -1.94519556
Li       0.97165586      11.73955123      17.49136850       0.14013325       0.10456887      -0.02445636      -2.30018187
O        0.23305147      15.75644300      -0.21678958      -1.02634954       0.29726750       1.70504308      -7.83197784
Li      -0.73653168      15.16636646       1.57255112       0.00104335      -0.42687482      -0.82906002      -3.15755558
Mg      -0.06109165      15.29849831       4.67418991      -0.50423366       0.59305948       0.25447536      -2.39450479
Si       0.52157057      14.53062322       7.07896547      -1.67767596      -1.41899848       0.65287143      -4.92797899
Bi       0.62303984      14.75095655       9.77270444      -0.58606112      -0.06181043       0.71814358      -3.82931757
O        0.31494140      14.02621769      13.30136533      -0.37482026      -1.15465856      -0.72257650      -8.44709778
Si       0.20687777      14.37797456      14.87133320      -0.76832592       0.22743648       0.37980431      -3.82840395
Li      -0.13448758      14.65023762      18.31831041      -0.27804306       0.04686659      -0.50529021      -2.88129616
Si      -0.26328719      17.25316596      -0.58765921      -0.43697694       0.51329398      -0.10022730      -4.76043034
Li      -0.70498344      17.56921451       2.58135724      -1.06273508       0.76615989      -0.21721247      -2.79402590
Si       0.38068293      18.10017768       4.93315344       0.49459910      -0.90038592      -0.60135579      -4.62456036
Mg       0.74109571      17.34020078       8.25607269       0.04887056       0.04217943      -0.00332713      -1.74300575
O       -0.09929327      16.72910605       9.85914419      -0.32131708      -0.05188607      -0.11752692      -6.86654949
O        0.03909442      17.40599604      12.99969774      -0.25102407      -0.18505368       0.15516764      -4.62570190
O        0.24280956      17.15710718      14.17697040       0.02839620      -0.48614004      -0.21647815      -5.28607941
O       -0.54378065      17.20269969      17.67325541       0.68729216       0.19141251      -0.19763404      -6.68214893
Mg       2.01242274      -1.01047745      -0.68997931       0.46394098       0.88625002       0.11162712      -3.18876958
Li       2.86859980      -0.09095177       2.82102626       0.62227821       0.92394817       0.58129185      -3.10180664
O        2.83732990      -0.85279256       5.15614948       0.38905632       0.03111166       0.57755435      -4.26196051
Li       2.70130008       0.73200322       8.23548412      -0.40845966       0.50684530       0.98047471      -3.85410476
O        1.86061223      -0.39521267       9.87617924      -0.52439213       0.16512108      -1.19128227      -5.00986624
O        2.99979386       0.06695478      14.09001815      -0.30365860      -0.61446863      -0.22468945      -5.83028984
O        2.80243619       0.50764525      15.41222726       0.28339025      -0.32829887      -0.29995531      -5.22943497
O        3.18219080      -0.18870396      17.84104109       1.35429811      -0.25289869       0.77959484      -5.54261208
O        2.17319262       2.47083782      -0.61657897      -0.02014759       0.51946950       0.38385341      -4.71574450
O        2.51000167       3.72165512       1.40038181       0.53756565      -0.44412819       0.36461484      -7.53631973
O        3.46658795       1.59416128       4.34779797       0.69565433      -0.12965427      -0.47317481      -5.20547199
O        2.96313161       2.35501954       7.12734890       0.50709671      -1.30000579       0.05191872      -6.22534561
O        2.37407087       3.24483817       9.34230049       0.37240428       0.46967477       0.52899337      -5.86029053
Mg       2.86322952       2.39662678      11.58167323       0.80636406      -0.09106321      -1.66373241      -2.68204665
O        3.50428418       2.48941539      13.43170852      -0.40756494      -1.01276410      -0.96492940      -7.01071882
O        2.36828231       2.21034449      17.90518273      -0.56354988       0.12501800      -0.51900917      -5.08530426
Si       1.79656714       4.73596849       0.37430699       0.22835794      -0.77977693      -0.04812129      -6.20579052
Mg       3.28439055       4.98888715       2.52007296      -0.24227493       1.28317857       0.13360603      -2.65157127
O        2.32187002       4.66374044       6.46921512       0.03496790       0.08983767       0.70004445      -5.60508442
Si       2.78116594       3.81385582       7.77933296       0.47620875      -0.49293503       0.07476853      -7.58372068
O        3.37766800       5.37729351       8.95318439       0.00873554       0.08250815      -0.49652743      -4.87216187
Mg       2.57822156       5.79362065      11.61085036       1.09817135       0.41143349      -0.48040929      -3.57402182
Si       2.63833413       5.97068241      14.48299437      -0.47298247       1.29061508      -0.13353628      -4.82493305
O        2.53998111       3.33854703      17.08391255       0.51205319       0.15636289       0.20976143      -4.65408802
O        2.32109290       6.21811911       0.52398054       0.29987574      -0.12315843      -0.25734520      -6.57786226
O        1.80931007       7.63245390       2.71992927       0.08471534       0.85234094       0.09799412      -5.14103985
O        3.45632983       6.94827877       5.35938238       0.25919068       0.30536193      -0.21310210      -5.13633060
O        1.87211457       7.47069599       7.67807676       1.00310326       0.01515177      -0.20852411      -5.77376413
O        2.42103996       7.07075520      10.16555501      -0.68175071       0.48079038       0.25484011      -3.74168611
O        2.42775123       7.33617056      13.04501282       0.12671673      -0.60587668       1.30865693      -5.24054050
O        3.33512317       6.67302555      15.76161203       0.60624510       0.42389545      -0.07416621      -7.03350401
O        1.86461763       7.48693313      17.87471844       1.02144921       1.02390003       1.16123295      -3.55619884
Mg       2.24548482       9.78064900      -0.04919009      -0.19185780       0.36518726       0.13649943      -1.89763761
Mg       2.26693075       9.53381076       3.26162531       0.21178836       0.08174401       0.94920504      -2.29199600
O        2.97315024       9.52766723       5.34148163      -1.28482473       0.04477967      -0.46577120      -5.56210899
Li       2.43570299      10.27914014       7.66776955      -0.76620936       0.00154638      -0.31426895      -4.24008322
O        2.08828918       9.66531689      10.50604074      -0.09897780      -0.31112266       0.31927872      -2.29672003
O        2.72731303      10.37935898      12.70725557       0.56653798       1.07367039       0.96667600      -5.43435764
Li       2.51278024       9.31189882      15.01906147      -1.45548093      -0.89537340      -0.67704988      -2.99930239
O        2.73492278      10.21625572      17.88420090      -0.44097587      -0.15820023       0.35456908      -8.74371529
O        2.94846605      12.67007237       1.02774296       0.09445906      -1.20377076       0.70489436      -5.79453039
Li       2.15302216      12.39453119       2.56199335      -0.10058805      -0.67776799       0.84730649      -2.89323592
O        2.91096809      12.19886807       4.49586369       0.68900013      -1.01456892      -2.11201549      -3.81475854
O        2.95162527      11.92317576       8.17776724       0.33436212      -0.13470018      -0.58895767      -6.69316769
O        1.51081146      11.90170433      10.74518370      -1.84383917       0.65010566       0.02615392      -6.09300518
Bi       2.79276150      12.90833717      12.15004739      -0.55575240       0.50651896      -1.21670425      -3.32816195
Si       2.55014343      11.87396921      15.04525290      -0.01657990      -0.35299513      -0.08866440      -4.31854868
O        2.41876793      12.70738160      17.29993533      -0.25439626       0.57104945       0.00614733      -8.59847832
O        2.43616701      14.98342990       0.73867171      -1.33764076       1.18817067       0.22281757      -7.10344648
Li       2.00739850      14.76564828       2.69929512      -0.05670843       0.38462311       0.43218580      -3.01244926
O        3.11045782      14.89043759       4.42341825       1.15430617       0.16250060      -0.63871282      -7.14113760
O        2.03645883      14.40157533       6.89626902       1.02849984       0.54193252      -0.17823184      -6.62149286
O        2.55048344      14.84722559      10.08292439       0.51577526      -0.47070259       0.37779492      -4.63181210
O        3.52056774      15.15634873      12.36029033       2.03377104      -0.38941646      -0.06938811      -7.55623102
Bi       2.92826096      15.10095915      14.81292322       1.25171793       0.37354743       1.50271297      -3.81384754
Li       2.67924154      14.48159091      17.43874382       0.47196168      -0.45384684       1.33888149      -3.18965268
O        3.06457220      18.78789612       0.99404269      -0.35785091      -0.42652446       0.52871323      -8.76518631
Si       2.53447629      17.40896401       1.97249419      -0.03958359       0.08026099      -0.66894788      -4.22921228
O        2.42746450      17.60203179       5.18420586      -0.81461328      -0.28219336      -0.59926122      -7.06976175
Si       2.78655152      17.56729243       6.98065575       1.01882291       0.93973035      -0.75819361      -4.19965363
O        3.23412423      17.68339206      11.33858511       0.65444267      -0.46439657       0.76146460      -5.93351173
O        2.28946095      18.00353729      12.20370008      -0.28487426       0.65703332      -0.66450608      -3.41389751
O        3.54963596      16.91102719      14.05303338      -0.08803426       1.07649398      -0.13009092      -6.37137222
Si       2.34920281      16.88053931      16.97964276       1.99540901       0.95643473      -0.59507906      -3.35839128
Bi       4.87211751      -0.01561225       0.23800359       0.35985953       0.11660337      -0.05607995      -3.73060203
O        5.31108039       0.38686706       2.18371109      -1.02611256      -0.20623910       0.21394318      -6.25525761
Li       4.40915502       0.01487761       4.47018811       0.11377957      -0.38590109       0.21137811      -3.10750628
Bi       5.50235347       0.49176213       7.89482335      -0.71584594      -0.60530388       0.63337761      -3.37888122
O        4.26348388       0.77550236       9.55395818       0.58887547       0.39415997       0.29330182      -5.17467785
O        5.82948096      -1.25107991      12.38153296      -0.22146961       0.67106873       0.27756962      -8.10342503
Si       4.69516931      -0.00541597      14.39688965      -0.01481873       0.03485775       0.33078685      -4.95784760
Li       5.18234457      -0.67998942      17.32175935      -0.26130271      -0.37940413      -0.02832524      -3.71006489
Si       4.85460094       3.18457919       0.44017100      -0.63672101       0.39902538       0.25927305      -3.79348230
Li       4.55848112       1.89683046       3.03197019       1.01868224       0.33766967      -0.40841562      -3.30455494
Li       4.83049666       2.30257253       5.56542379      -0.79315186       0.28509027      -0.27210218      -3.42271209
O        5.48869771       2.91522885       7.66560527       1.36251962      -0.15219069       0.37026963      -6.22617054
Li       5.78525546       3.52237218       9.77470705      -0.60880727       0.60258198       0.06819397      -3.74966002
Si       4.97916157       3.14126537      13.23975008      -0.51757014      -0.65450764       1.32519364      -6.04082251
O        4.86424425       3.15005827      15.36923452       0.13518058       0.01363073      -1.29558337      -6.99977064
Mg       3.83572438       1.82777260      16.39771010      -0.53505397      -0.00872800      -0.06576420      -3.49548244
O        4.91363154       4.93580027       0.57989191       0.47477624      -0.19851112      -0.26910099      -6.83917332
O        4.87781770       5.74352399       1.92226349       0.41363919       0.49332568      -0.13207161      -5.09919262
Li       4.11397580       4.99623938       5.37954349      -0.03914121       0.20217681       0.79984581      -3.97317100
O        4.88127428       4.24767660       7.26461991       0.17517042      -0.15846261      -0.17137444      -5.09306622
O        4.27638189       5.20866700       9.96373294      -0.24580878       0.03926700      -0.16203696      -5.26635790
O        4.58364479       4.25241504      12.11160352       0.11091404      -0.11256659      -0.23410413      -6.42911911
Li       5.28953366       5.62291517      14.18229516       0.68214542       0.42804289      -0.59569114      -3.82775450
Bi       5.29195603       4.56614027      16.82106884       0.50534868       0.15775084      -0.18391490      -3.80365229
Li       4.84610872       6.71686833      -0.02251554      -0.36171910      -0.48903400       0.67660302      -3.16779804
Li       4.62189584       8.13737063       2.64790244       1.02552652      -0.36726156       0.26373911      -3.80195928
O        4.41558371       7.64180392       4.90518401      -0.02767304       0.35452569      -0.40329325      -4.90459347
O        4.95847664       7.87526966       7.91440419       0.16896194       0.07592658       0.14690575      -2.94915628
Li       4.72440436       7.25073337       9.76260895       0.07308728       0.18266980      -0.04456490      -4.67490482
O        3.72423105       6.59003159      13.16008581       0.90953141      -0.39825642      -0.36775655      -6.49184799
O        6.33240732       7.59838685      15.28225001      -0.48058832       0.17514342      -0.53134155      -8.62150574
Li       3.63715247       8.55838251      17.94579369      -1.99682653      -1.13166785      -1.16252899      -2.72410989
Bi       5.35443360       9.69054487      -0.39006961      -0.00761811      -0.17197233       1.49365973      -3.57416391
O        4.78902786       9.71638354       1.65540983      -1.14856482       0.02862354      -0.11622120      -6.70645285
O        4.20995232       9.37206609       5.63688683       0.98468626      -0.12194065       0.12580395      -4.72113943
Li       5.35566360       9.66434547       8.38948577       0.33513391      -0.32086599       0.64354086      -4.36303520
O        5.08404873       9.24892533      10.75216942       0.00618906      -0.63431382       0.03241724      -4.57735682
O        5.39754574       8.98828359      12.13120762       0.37525457      -0.71763152       0.01147828      -5.54730654
Li       4.84055916       8.76068082      15.17448474      -0.01734203      -1.40426028      -0.64886802      -2.49995899
Li       6.20588712       9.00217074      17.24823037      -0.51985550      -0.63676763      -0.63595599      -1.61947453
O        4.55560529      11.78611997      -0.89067408       0.80478787      -0.25819153       0.08897065      -7.68792868
Bi       4.86334333      12.31223679       1.55264703       0.87398076      -0.22520977      -0.78554887      -3.81759191
Li       4.86335193      12.27658274       4.97906457      -0.94213498      -0.29520923       0.18881406      -3.55130172
Si       4.47686335      12.23633955       8.33438799      -0.19965917       0.45623478       0.02216095      -5.11298084
O        4.98589950      11.80173909       9.75535558      -0.13594158      -0.27144378       1.00991178      -6.39974689
Bi       4.86559633      11.12184221      12.13677524      -0.90905678      -1.21143818      -1.29164886      -3.81480575
Bi       4.99191393      12.76928486      14.99868857       0.52355653       0.29106411       1.22954285      -3.35685635
Si       3.55212134      11.62682495      17.69377941      -0.04443583       0.23201463      -0.21253473      -4.93876982
O        5.20976184      14.33236847       0.61742582      -0.01325482      -0.26360258       0.39926386      -7.38563919
Si       3.90511614      15.04215087       1.24050023       1.46137178       0.82282972      -0.22363114      -5.14935875
Si       4.36504401      15.45778613       5.24170851      -1.03993261       1.37409472       0.20659162      -5.82891989
O        5.02647775      15.29718044       6.68650873       0.53007054      -1.02664888      -0.19924942      -7.34033823
O        5.43141094      14.35359535      10.15160276       0.49582353       0.43967116      -0.23944294      -6.21049309
Si       5.38894628      13.90125418      11.78583893      -1.57178414       0.26997492      -0.27367181      -4.74442720
O        5.25876829      14.87619567      15.15943684       0.15719526       0.19861314      -0.84776199      -5.58533907
O        4.40478121      14.96469750      17.06636907      -1.13470960       0.54447269      -0.39052045      -4.05196095
O        5.51556665      17.56049267       0.81563263      -0.10949564       0.52664071       0.86912858      -8.66395664
Si       4.79153686      17.03164253       2.34701849      -0.31254637      -0.47081399       1.29874742      -4.27975750
O        4.97954742      16.90394011       4.81392402      -0.73462641       0.49182171      -1.37233901      -7.09602070
Mg       6.15822503      17.48711980       6.56933675       0.94598830      -0.71032238      -1.16292167      -3.25366211
Si       5.91588826      17.00330147       9.17490309       1.21695495       0.37744528       1.18422735      -4.30853844
Si       4.16711184      16.62356623      12.58657613       0.02377027       0.21610722      -0.80646998      -6.82890415
O        5.16349652      18.26389614      15.08695492       0.36849666       0.40983313       0.42052114      -6.37081623
O        4.64087666      17.71422390      16.25637722      -1.09094143      -0.11980188      -0.04037905      -4.43312550
O        7.49975119       0.25216558      -0.90135108      -0.02786152       0.09989031       0.33504820      -5.28467369
O        8.33333582       0.15466866       1.99616339       0.01934344      -0.30836844      -0.48061559      -6.14954042
Bi       8.14653250       0.93152310       5.32360720       0.28450447      -0.67982405       0.75406510      -3.75867414
O        7.27648580      -0.55584049       6.99889320      -1.01130044      -0.60974777      -0.35103905      -6.75581884
Si       7.99196239      -0.51387438       9.87457780      -0.28176463       0.30764759      -0.08434743      -4.88864517
Mg       6.99234526       0.27646181      12.53489584      -0.69907498       0.05557445       0.18558353      -2.02602005
Si       8.12372784      -0.50899796      14.93231202       0.36239976      -0.38956186       0.44507143      -4.15909576
O        7.09277690      -0.10052764      17.57113755       0.07034261       0.39681733      -0.27484858      -5.08760118
O        7.83928004       2.28624425       0.58708811      -0.39610571       0.43248540       0.88874811      -7.69676352
Mg       8.22452620       2.96960167       3.07427075       0.10278609       0.23758970      -0.70139003      -4.20073509
O        6.77068577       2.11180142       4.20916746      -0.14850020       0.29772124       0.35956252      -6.68127012
Si       7.44565678       2.45992957       7.67517111      -1.79802835       0.49579406       0.38359809      -4.38257456
Si       7.92904242       1.85282528      10.64927585      -0.35462925      -0.36921504      -0.48077431      -4.86329842
Si       7.34013316       2.84595902      13.00989901      -0.01957777       0.39171401       0.27710581      -5.46707249
O        8.06964771       2.29570243      14.42453835      -0.33992684       0.09353292      -0.52164155      -8.80477333
Mg       7.87408826       3.07515513      18.70822345       0.26830381      -0.22315668       0.57031381      -3.05297279
O        8.45611369       4.88403044      -0.44338265      -0.38980371       0.20105366      -0.10615933      -5.75772047
O        7.43611964       4.77843054       3.12937834      -0.06317897       0.09386668       0.27909344      -2.99610043
O        6.38343960       5.53832578       4.81500031      -0.74528652      -0.42499691      -0.10548389      -4.58915329
Bi       7.20337593       5.14588033       6.64305333      -0.20202471       1.85510397      -0.01536605      -4.72801542
O        8.15697084       4.85512936       9.21525392       0.05806956      -0.37895805      -0.10741127      -5.15904522
O        6.81409518       4.44313456      13.39042041      -0.11549707       0.44634020       0.39280963      -6.68680096
O        7.06079265       4.75336808      14.79270332      -0.58631194       0.70385921       0.24014691      -3.84682631
O        7.20923928       3.86993526      17.17670939       0.13996069       0.39987272       0.28540504      -6.49053764
O        7.36882463       7.72278812       0.95233156       0.07112849      -0.20204270       0.13222903      -5.60941935
O        8.03252612       7.29497379       1.91384123       0.08859596      -0.12762004      -0.04681247      -4.57418633
O        8.91291417       7.52037721       4.92607010       0.11203289      -0.11897862      -0.06876807      -5.09566593
O        7.24894550       7.30431240       7.35999537      -0.52856237      -0.99470049      -0.31211033      -3.44946909
O        7.22726538       7.24794993       9.95310107      -0.83346444      -0.07057276      -0.57341993      -3.92947960
O        7.38042845       7.20628869      12.01495817       0.42656982       0.48261344      -0.57708281      -4.00147438
Li       7.28905735       7.80474786      13.66523296       0.45378670      -0.77292001      -0.31374657      -3.58831120
Si       7.78139147       7.79654840      16.01091589       0.59707761      -0.49084088       0.88624322      -4.12571049
Si       7.83197927      10.24315363      -0.13981458       0.13928682       0.74186838       0.57128620      -4.98025894
O        6.96429175       9.36081688       3.32935918      -0.33268565      -0.00335709      -0.01422305      -1.80761671
O        7.63850211      10.76942115       5.22449165      -0.52961874       0.36268726      -0.17417720      -4.21921349
O        7.09553461       9.79110008       7.74047950       0.78820878       1.61984003       0.57669139      -2.85612202
O        6.80917441      10.19115096       9.79699398       0.18704793      -0.17933144      -0.06882601      -3.09466171
Li       7.34244884       9.92217699      11.91159170       0.08979264      -0.65677273      -1.35735571      -3.17794061
Bi       7.01579344      10.41701644      14.57157828      -0.05950834      -0.10670683       0.19877915      -3.64653063
Mg       8.19277472      10.32696199      17.16665472       0.36662334       0.28371897      -0.14273269      -1.33635736
O        7.42071285      11.56923686       0.65449168      -0.28641391       0.48787916       1.59647954      -7.32809639
Li       7.66546997      12.05099089       2.62916625       0.86831182      -0.43274069      -0.60200393      -3.91683793
O        7.01337939      11.62910701       4.49648409      -0.38013852       0.23137277       0.12985343      -5.83255053
O        7.60277170      11.58558337       8.33359896      -0.79694390      -1.74551010      -0.16737497      -2.55789709
O        6.60258403      13.50918849       9.78778462       0.28831175       0.31002027      -0.43732816      -3.93735147
Si       7.60071636      12.38433758      12.58952659       0.26414829       0.01526206      -0.06095356      -4.35967302
Si       7.69064761      12.95633965      15.09451387       0.72064364       0.05283245       0.69753838      -4.65917921
Si       7.77270551      12.74305038      17.76464240       1.65488219       1.55506277      -1.23022354      -5.08369732
O        7.45063774      13.81387919      -1.03538528      -1.12443244       0.59622759       1.12939465      -6.49085426
Si       7.92405617      15.30346153       2.72653637       0.25782388       1.35317469       0.33411223      -5.00160694