50
Lattice="10.985501777928953 0.0 0.0 0.0 10.985501777928953 0.0 0.0 0.0 10.985501777928953" Properties=species:S:1:pos:R:3:forces:R:3:energies:R:1 energy=-263.5355224609375 stress="0.007421984802931547 0.0006922661559656262 0.0018565452191978693 0.0006922661559656262 0.016071384772658348 -0.002525034826248884 0.0018565452191978693 -0.002525034826248884 0.011295445263385773" free_energy=-263.5355224609375 pbc="T T T"
Si       1.13712811       0.23232929       1.46816980       0.06467789       0.58920145       0.05029976      -4.20181656
O        0.29324820      -1.10711052       1.78430700       0.57163793      -0.44492102      -0.49931407      -7.71501541
O        0.75491332       0.57620329       4.93372504       0.13354987       0.67873985      -0.43963811      -5.78594065
O        0.59183918      -0.10512686       8.61401970      -0.04011818      -0.23948491       0.06637236      -8.57954407
Si      -0.33627089       1.15408774      -1.69557121      -0.09081972      -0.08877575      -0.08062014      -6.15648413
O        0.40974854       2.66836200       3.00976353      -0.41885054      -0.13870567       0.01498795      -8.84500885
O       -0.53675822       2.03404419       6.71260749       0.08542271      -0.08475735       0.27651805      -3.92114186
O       -0.48269312       2.46743347       7.95883084       0.04684199       0.08424391       0.19560093      -6.16733217
O       -0.32449838       5.93334092      -0.71232317       0.07193084       0.40494698       0.09006295      -4.52828360
Si       0.25528328       4.27327572       3.33310846       0.39006147      -0.16409707       0.36658320      -3.84652734
Bi      -0.16402875       5.82666470       5.28062011       0.43062025      -0.02336021       0.10458045      -2.87314701
Li      -0.31060239       5.67655204       8.44642209       0.22921336       0.12935331       0.10129404      -3.58942986
O       -0.03539276       7.36055331      -0.77530100       0.17947990       0.34797630       0.00941977      -5.56606817
Mg       0.87901256       8.06768959       1.01431124       0.20665088      -0.08390081      -0.03058520      -3.91922951
Li       0.69895522       9.78216676       4.77577214      -0.08648480       0.03959674       0.01288559      -4.06989717
Li      -0.27075285       9.19435005       9.12450880      -0.29709333       0.14120744       0.18086387      -3.76893020
O        2.71938017      -0.89625191      -1.01185774      -0.08996001      -0.21331623       0.06128071      -9.25959778
O        2.18000079       0.73115857       2.65449207      -0.50014395       0.21132213       0.07639598      -8.31456470
O        3.87962496       0.24086849       5.18025858       0.19444573       0.07238027       0.02093237      -5.14813805
Si       2.28823916       0.09862056       8.68170709      -0.06358904       0.11806273      -0.12804508      -5.35505676
Mg       2.55145855       2.39503345      -0.10460348       0.15141694      -0.23984514      -0.07692486      -2.38521671
Si       1.46574691       1.70487935       4.01571588       0.47767603      -0.66058362       0.21143723      -7.98666954
O        2.49190843       2.77162033       4.61914743      -0.54206002      -0.13039061      -0.42773429      -4.93386936
O        2.37922476       1.67781869       9.17806869       0.06265546      -0.59827077      -0.20539336      -7.00843859
O        2.86750984       6.32209979      -1.59642865      -0.02981998       0.04133691       0.01339027      -4.51103640
Li       3.22393592       5.85125217       2.68478569      -0.28259817       0.69772953      -0.10201395      -3.83736467
O        3.20478676       5.56291138       5.59641062       0.05760819       0.34429002       0.08568582      -5.79429197
O        2.52732408       6.41998710       8.15035757      -0.30308849       0.12417787       0.07758141      -5.34618664
O        2.55425345       7.67573990       1.79750862      -0.00120194      -0.55584246       0.19745068      -5.69986439
Li       2.82966160       8.65512910       3.39276658      -0.14614964      -0.15489554       0.02671868      -4.00169611
O        2.03101662       8.44406994       5.13725307      -0.10843086       0.12720561       0.14819080      -5.97831106
Bi       2.97531116       8.48689251       6.94266962      -0.07292178      -0.07017735      -0.15328020      -4.15546989
O        5.13123654      -0.39080536      -0.03642944      -0.07819617       0.19354141       0.14305802      -7.80789137
Li       5.85532567      -0.12305015       1.85011604       0.05649427       0.06132928      -0.25175709      -4.09210825
O        5.00841402      -0.25442883       5.18231390       0.13003829      -0.01970286      -0.03288817      -4.98817825
Li       5.84002664       0.89077921       9.74355203       0.05110022       0.10165031       0.24928845      -3.92191648
O        5.17298301       2.76456168      -1.03203520      -0.17087461       0.09255649       0.00364912      -5.28151798
O        5.44712473       3.07298203       4.23909264       0.02088851      -0.05309868       0.01738116      -3.85251617
O        5.60361901       3.90454338       5.24486364      -0.07824586       0.01532949      -0.06008809      -5.74917746
O        5.22652552       3.34385793       8.58046188       0.01643772       0.06189674       0.02896756      -4.53285980
Bi       5.66288266       4.97041988       0.12846497      -0.16954495       0.06148656      -0.00179822      -2.79288626
O        4.95215362       5.93386262       3.59600634       0.14293674       0.21599764      -0.06410718      -8.00649834
Si       4.70564573       5.49749632       5.16571040      -0.05612159       0.15988213      -0.37354186      -7.61659718
O        5.59733376       4.68229395       8.70748262       0.01339230       0.18065748       0.06013424      -5.04259157
Si       4.01382648       9.42976982      -0.17282966       0.17894822      -0.21275473       0.15952760      -3.75098443
Mg       6.19952890       7.07997146       2.81969591      -0.15747498      -0.01141001       0.10874411      -1.80466783
O        5.79559456       6.38586773       6.09261875       0.04577005      -0.20649897      -0.38262796      -8.88348198
Si       5.57915095       7.10213657       7.54237076      -0.05409250      -0.36808887       0.32099938      -3.62997389
O        9.29760951       0.58745567      -1.15945847      -0.01599944      -0.12382418      -0.12650794      -6.03725147
O        7.21120195      -0.36913298       2.94855537      -0.15601617      -0.40939492      -0.04341614      -2.49491787
