50
Lattice="8.094186915652047 0.0 0.0 0.0 8.094186915652047 0.0 0.0 0.0 8.094186915652047" Properties=species:S:1:pos:R:3:momenta:R:3:forces:R:3:energies:R:1 energy=-287.33074951171875 stress="-0.15094484388828278 0.02446611598134041 0.029551373794674873 0.02446611598134041 -0.0276868287473917 0.018212588503956795 0.029551373794674873 0.018212588503956795 -0.07327687740325928" free_energy=-287.33074951171875 pbc="T T T"
Si       0.37827952      -0.90618316       3.46239666       1.44061613      -0.93384914      -0.21663829       1.58394980      -0.48905766      -0.53162014      -4.30467224
O        7.51111987     -10.54804137       2.18491159       0.13370078       0.85165530       1.35155324       4.14856815       5.36238194      -5.43592691      -7.83773994
O       -5.67799254      13.93056325       6.81184747      -5.50068056       2.93987628       3.42446117      -1.71937156      -2.26460624      -5.73352242      -5.78805447
O        7.84717716       1.07904832       9.67295757       0.25634510       5.00344580       1.31207050      -3.05512905       0.46861723      -3.59883785      -5.41659832
Si       1.92055409       6.18886217       5.23776490      -2.69359894      -3.35769868      -0.71724011       4.34924221      -3.49834895       2.43220305      -6.33817959
O       -0.81674042       2.65004174      -3.48504325       0.08491550      -0.66132007       1.02839424      -0.68878847      -1.88221073      -1.26771176      -4.27280521
O       12.44325071      -5.91412726      12.82414434       2.79068944       2.12498596       2.26327622       0.69809872      -2.18830895      -0.28632212      -6.22869396
O       -0.78779630       3.91310049      -0.87590534      -1.33565910      -6.74961233       2.64174097      -1.18022490       2.37965631       3.58272457      -6.32872152
O       -9.13695302      11.54588919       2.92914532      -2.47119424       1.29963316      -0.98779860      -0.33126688      -2.72534013      -0.75164127      -4.42226791
Si       3.86280520       6.23218689       2.83300316       0.83464902       4.25106613      -3.68887753       0.28708169       2.76119113       4.11151505      -6.17354012
Bi      -1.96037556      -1.30031403      -2.53825991       6.66793361      -8.25680649       5.66063609       0.35370737      -0.42298719      -0.02682367      -4.23952532
Li       4.63500135       5.81453889      15.25442108      -2.98881820      -1.64355779      -0.29061052      -3.99417996      -0.98059237      -1.93718266      -3.17054605
O       -1.01088686       7.96550913      12.02695175       0.65609893      -1.81122441      -0.01452048       3.63787651      -1.89181590       2.21637535      -7.50663662
Mg      -1.89567357      -0.05007214       0.27065972      -2.69391533      -0.04028246       0.42787658      -0.58927673      -3.67547035       1.81325841      -3.70033360
Li       0.74765548      19.18444457      27.85671326      -1.09476763       1.47017214      -0.17382032       0.01310948       1.07899237      -1.35245132      -4.52952003
Li       4.61724079      17.46473136       6.32961811       3.06587510       1.39325160      -2.67680107       2.51624060       2.05609941       0.03785390      -3.67661166
O        9.31614919       0.48765749      -5.16613116      -2.59815517      -0.83650888       5.97651524      -0.68012059      -2.29533625       4.75225258      -6.53420734
O       -4.64597749     -15.77640992      -1.16573117      -2.37059830      -4.06611723       1.95237081      -2.17326760      -2.96823359       1.15890634      -5.12235308
O       -9.09293738       4.86948535      20.73636684      -4.63785545       1.32214442      -2.78468817      -2.40235424       5.54641342       0.85390800      -5.59743929
Si      10.77563215      -4.08614324       9.52643459       0.68173651       0.77070748       0.07588327      -0.31757236      -1.41350365       0.29758942      -5.75989771
Mg       2.71315498       9.11616326      -2.85341593      -3.50412351      -2.60746386      -0.45220872       2.22876215      -2.89981937      -1.01312447      -3.39067197
Si      -0.14074068       5.55981782      -7.87626053       2.17151332      -0.69047986      -1.75948335      -6.62297010      -2.28560781      -0.52515441      -5.32650948
O       -6.99545053      11.86413317       1.26254184      -3.74711175       0.77570808      -1.62717718      -0.54495788       0.93601537       0.31932124      -6.04091358
O       -8.74731029       6.90923582      15.30222216      -4.08062578      -3.97668935       0.13889907       1.55801713      -2.16647172       1.48316002      -6.27327824
O        3.37195825       6.52639945      -3.49966865       3.16155337      -1.93733648       3.53893992      -0.01173470       1.65560329      -2.69716406      -7.71525383
Li     -26.19134696       3.86571809      21.84224389      -0.98530514       0.64953192      -4.49876362      -0.64480102      -1.03939557      -0.07065327      -4.32815456
O        5.31432708       6.76439034      11.45832383      -1.34693271      -0.51875162       2.38400304       0.75607723      -1.40050769      -3.14793587      -7.48294449
O        8.94217649      -0.78842737       5.12039672       0.21554198       2.87003696       3.32070207      -1.90628195       4.95751953       1.17445946      -8.80066109
O        2.67179095       3.28657776       3.44202597       5.01784073       4.34006323       2.46126265      -2.91964817       0.79307055      -7.06625700      -6.97723722
Li      -5.52636163      14.75029292       8.11613200       0.01928864       0.08654371      -1.36286279       3.85113645       1.25008762       1.23293281      -3.84914136
O        4.78647490       4.38245453       2.80560237      -4.41406945       1.55922252      -1.21930373       1.68825483       2.82423353       0.54409873      -6.09734154
Bi      -2.30431194      17.31737814       3.06041237      -8.07763508      13.38879114      -6.90636532      -1.96651649       5.76383972      -0.45223173      -4.38982058
O        3.09969732      -4.94465971       8.10543959      -2.38654222      -0.60155818      -2.74295402       3.40173578       1.40865326       5.06610298      -6.42288160
Li       5.23650991      19.89685457       0.07848119       2.50737499      -2.49239714       1.40044148      -0.44616291       0.45611143       0.39327160      -4.12948513
O      -17.96314886       8.96074819      31.12488445       0.81864455       0.74983587      -1.70901528       1.56500590       2.53352833      -2.59668756      -6.34760046
Li       1.75688703      -4.58380331       7.16878049       0.88776939       0.14265066      -1.20744894      -1.99235070       1.08359158       0.76404375      -4.70732546
O        1.30057161       5.52953354       3.82634033       1.57958624       1.96049960      -5.60461308      -0.59484220       1.36020589      -0.36665469      -6.50292587
O       -2.18340467      10.13856233       0.71607316       0.10758855       4.42638223       2.57592289      -7.02142859       1.08183575       3.43996263      -7.38537836
O        9.21752353      -1.73103257       0.39908553       0.08239896      -4.08002873      -2.60517623       0.06906563       1.69030201       2.92207503      -6.05826664
O        3.35770616      13.64214027       1.56068329       5.08469083      -0.87777373      -3.54319158      -3.31423187      -3.45967865      -4.03151321      -8.46019745
Bi      10.07565468      -7.38031016       1.01336699      15.87352812      -0.35469189      -0.40604116      -1.93260324       3.24459076      -4.03840923      -4.49290419
O        3.23866071       7.75849076      10.16389428       4.35160499       0.23036158       0.14518454       5.14877033      -3.09673595       2.90256476      -6.02751637
Si       3.15227848      11.65643878       4.86495605       3.47348884      -2.91727186       8.53932127       5.54115343      -2.03272676       1.58421874      -6.93260860
O        8.50345856      -5.98794150       7.26578236      -0.92923757      -2.46538189      -4.00693309       3.33986378      -2.50723314      -0.27346319      -7.00654030
Si       7.19272830      10.20735766      -0.01608933      -2.19214248       5.89377566      -6.06368116       5.40892601       1.27948475      -2.86796284      -5.89423895
Mg      16.46609124      -6.63167697       5.51573296      -5.06804620      -2.75104342      -4.77719946      -1.65986276      -0.95329171       0.84855568      -3.74654436
O        4.12524489       4.51962775     -10.57388225      -1.40346607      -0.12297099       2.60501250       2.02908778       1.04760623       1.32900870      -6.20987654
Si       6.37201932      -3.04527826      11.07967916      -1.12253955       0.05038721       4.17843818      -4.32313871      -4.94686413       4.04531097      -7.21373034
O       13.71273344      -2.23524739       0.30924192       3.71671086      -4.22871494       2.64095819       2.47917700       0.40061966       2.23393106      -4.93297720
O       -5.81540801      26.95977733      -2.26110215       1.96134464       0.42880778       1.99955053      -3.61982489       0.06389298      -1.47034955      -7.23952341
