1000
Lattice="22.360637345838086 0.0 0.0 0.0 22.360637345838086 0.0 0.0 0.0 22.360637345838086" Properties=species:S:1:pos:R:3:forces:R:3 energy=-229537.21875 free_energy=-229537.21875 stress="-11.452823638916016 -7.327808380126953 0.659950315952301 -7.327808380126953 -7.528757095336914 -3.3938987255096436 0.659950315952301 -3.3938987255096436 -28.568675994873047" pbc="T T T"
O        0.22213990      -0.06183619       0.28965584       1.01051331      -0.90129113       0.41273430
O        0.68112248      -0.10471555       2.13135374       0.71031177       0.64182919      -0.28134507
O        0.70625290       0.34322797       4.26220177      -0.57937545       8.36525345       5.59928370
O        0.24264346      -0.20710714       6.49991520      -2.86564112      29.73392296      11.98214531
Si       0.10826840      -0.85558982       8.17290447      21.19860458      18.78298569      14.63096046
O       -0.25146782      -0.45295891      11.32085826      -3.15163565      -1.54213023       2.14138651
O       -0.40608684      -0.63161079      14.07181024      -3.90596676      -1.00437725     -10.05871677
O       -0.10095803       0.03021828      15.01529508       5.03620625       7.01109600       4.74658108
O       -0.24345574       0.04960073      17.37378025      -0.57105243      -1.48969889       3.66295242
Mg       0.16801655      -0.26859541      19.99413091      -0.13532045       6.28543949       2.26865602
O       -0.26906619       3.06441669      -0.00604040       8.62772179      -3.46783137      -1.69335270
Li      -0.47302090       2.60390765       1.69008897       0.11304998      -2.92410469       0.66055149
O        0.09338917       1.35972039       3.87820177      -4.36896229      10.55263233      17.12596893
O        0.08727654       2.56547192       6.78409902     -42.90598679    -288.91470337    -236.85192871
O       -0.05158758       2.10007599       8.28328887      26.54306030    -337.35067749      69.27412415
O       -0.32195285       2.03004477      11.65297487      -8.09075069      -6.86786366     -24.42596817
Si       0.15363996       1.44756588      13.56133501     -12.06074333     -14.19615173       4.75715160
O       -0.17221405       1.93333922      15.92599470      -0.11415726       1.33267295      -0.37888965
O        0.46107665       2.65254784      17.51320363       0.19239932       1.32232070       0.89113533
Si      -0.13827900       2.38421700      20.56084482       1.66278839       2.84214854      -1.74687386
O       -0.21428272       4.38909783      -0.49477051       3.57095528      -0.20485356      -1.30567217
Mg      -0.53486203       4.83549110       2.84263422      28.77569008      -1.06103969      14.77461147
Si      -0.03295876       4.92048532       4.63035777    -218.81224060     -95.75627899    -770.91113281
O       -0.30045396       4.58607146       7.36611348   -1185.99792480   -8340.56640625   -5186.44580078
Bi       0.00878609       5.21301971       7.80556744    4128.47802734    7181.40820312    6007.43310547
Bi       0.36734214       4.51073671      11.04783615     -80.84011078     -85.70484924     271.58132935
Li       0.04103861       3.58327555      13.31813824       0.29009151       4.42698574      -0.95503414
O        0.15970098       5.13305398      15.42066579      -1.53363132      -2.46349740      -1.32978535
O       -0.36157065       4.24773242      18.29788637      -0.70535547      -1.02122295      -1.06130910
O        0.14701862       4.23520803      20.35411399      -1.07285738      -1.38558555       0.20358722
Si       0.04341793       7.14135557      -0.31399155       1.59465444      -9.58506393      -8.77873802
Mg      -0.14654458       6.53280422       1.58160067      -2.28929067      -9.29534340      11.91860771
O        0.13262239       6.82521982       4.47447064      42.57876587      70.26049805      14.22666168
O       -0.10472166       6.08113840       6.51169324     119.19696045    1357.65991211   -1972.09118652
Si      -0.15433610       6.35443771       8.87817679    -199.34307861     977.27569580    1239.41320801
Mg       0.18004342       7.55084684      11.25908454    -195.61228943    -265.12042236     190.84513855
O        0.11524278       6.67490889      12.55808736      18.70973015       4.46439171     -52.90865707
O       -0.01186518       6.73511834      16.75397346      -2.77564836      -3.01677871     -23.17139435
O       -0.08596363       6.84303843      17.87304225      22.08401299      -3.01540017      19.68071175
Li      -0.52264363       7.21928087      20.46084279       1.46314442       1.72705162      -1.65182221
Si       0.35377645       8.53760295       0.62736816       7.71328259      11.50692272       7.43322325
Li      -0.62688262       9.20666653       3.21575946      18.10060310     -16.08942413      30.52317429
Si      -0.44293920       8.69106171       4.51668696      15.40178394      14.11896706      -0.53950119
O       -0.22531066       8.25076698       6.73900778     -41.71482468       4.19975805      40.13766098
Si      -0.47514303       9.15638611       8.53329364     -10.17234802      93.19083405      55.48551178
Si       0.69379700       8.59514859      11.03616304     194.63020325     344.86514282     -39.56822205
O        0.36379422       8.39381950      13.51819502      -8.09243584       6.03720427      28.10537720
O        0.58452511       8.22537372      15.73502269     -16.12417603       2.11908078       2.19396639
O        0.11623124       9.29390566      17.33532476       2.83454251       3.48054075      -1.85646915
O       -0.59052260       9.17768837      20.25740355       1.12865961       6.12645388       5.92701769
O        0.11178114      11.33549653      -0.30391526    -132.17337036     102.49034882      93.34155273
O        0.10387340      11.31128124       1.91657071     -13.44675732     -45.62952805       0.98462200
Bi       0.83434467      11.39223918       3.93940490     -16.38585663       7.88814735      15.45812130
O        0.29359291      10.74437033       7.06018746      -7.07276297     -16.08585167       0.08459134
Li       0.51812958      10.81328489       9.37508954      -3.49811602      -4.05025864      -0.03653479
Li       0.18463182      11.54793976      12.02855548      11.05885887      -4.44380236     -11.28527355
O       -0.10974027      10.84321613      13.01862230       0.17652456      -7.86589766      14.69562912
Li      -0.36484416      11.14583764      15.80499812      -1.22532511      -0.13829139      -5.61575747
Bi       0.12375218      11.55020704      17.89432137       3.51878643     -13.50823307      -3.11053133
O        0.65017026      11.06129396      21.34059845      70.32121277    -399.10778809    -235.17623901
Si       0.27724228      13.05520489      -0.48015166   -1579.77624512   13942.57519531    -795.04907227
Li       0.21585585      13.31644446       2.55540621      36.66369629       0.26446247      23.56314468
O        0.21164093      13.38379229       4.09341731       3.72275567      -8.90062714      -5.83205891
Bi      -0.67743854      13.21668482       7.09117386       7.28885174      -4.73863506      -2.20623827
O        0.09574936      12.85927444       9.02171314       1.51960993       0.57031071       3.28155875
O        0.17236667      13.02117027      11.24898948      11.77249622      17.65188026     -29.30686951
O        0.02602772      12.90522648      13.57639672      -7.43848419      -6.28662300       3.57521915
O        0.25079695      13.90072764      16.12373349       0.36141360      -5.74427891       8.23204803
Li      -0.61612424      12.99700642      18.11884943      -4.13053703      10.47581577       3.29072666
O        0.23216332      13.62512755      21.84878856    1495.30004883  -13616.74316406     803.70263672
Li       0.25530556      16.16029086       0.42663825      -1.95048344       4.99552059      -0.23079562
O        0.29122574      15.51142341       2.57552309     -32.14205170     -10.56588840      15.04914856
O       -0.34495694      15.54618937       4.25499184     276.82257080    -145.83409119     -26.51726913
O        0.03669550      16.68742672       5.87327265      31.53931046     -55.13448715      51.50864410
Si       0.30689951      14.93121496       8.73319042      -6.25822258      -3.26650858      -4.65794897
Si       0.48681561      15.68133266      10.69826855     -52.74544525      46.92334747      -1.11964035
O       -0.31991971      15.95633133      13.08971516     -47.35526276     -30.79667282     -19.15628052
Li       0.09680218      15.67247616      15.36112073      12.98708248    -115.16474152      18.65138626
O        0.95876551      15.93594119      16.98279898     -13.53678989      -5.93131542      -9.45674038
Si       0.08338694      15.35643730      20.50575264       0.58869648     -18.77293015     -26.28785324
O       -0.35440524      17.83719836       0.22583935       7.26360893      -1.43533659       0.98822862
Li       0.38718370      17.35172973       2.08646984       2.53306007       2.79593182      -1.72640133
Si      -0.21232995      17.59652289       5.26153205      38.83080673      70.81556702     -44.38386536
Li       0.18109817      17.32462465       7.11869964      -3.93708134       0.34697342      10.81578159
Si       0.94888088      18.35030903       8.26480741    -136.45373535      35.07183075     -21.76844406
O       -0.21651940      18.45509099      10.86382751       6.54320717       1.90720046      -9.23104858
O        0.19825992      18.23501972      13.00178262    -199.67634583      69.56105042     -57.95862579
O       -0.02674673      16.43933545      15.19428301     -75.67425537     113.45064545       5.49166536
O       -0.11292230      17.33046948      18.61856228       9.10789490      -8.43885899      10.26440811
Si      -0.63958153      17.69171765      20.18305518      -2.30470204       1.74703264       3.49114633
Si       0.64453979      19.48243644       0.52018486      -6.06069136      -0.52862442       1.29116309
O        0.00456414      19.68562831       2.44271286      -4.56732655      -1.50468326      -2.91466665
O        0.08900270      19.85614949       4.50335581      -7.19654369      -2.35555744       3.71151972
Bi      -0.17246950      20.17538536       7.00433120     -45.86403656      15.36454201       5.50302839
O        0.70932161      19.57098337       9.89816066      34.07846451     -18.18674469     -13.23162079
O       -0.87300051      20.05670160      11.44342363      -2.16206455       4.25801229      -0.05241650
O        0.12554727      19.84610205      13.32329638    -104.48141479      13.94809341      -9.81182957
Li      -0.22046953      19.86099277      16.03238727      11.40865898      -7.26316404      -9.01617908
Li       0.15966418      19.81469334      18.29082290       2.58582401      -1.72467029      -1.71848249
O        0.13743316      20.48807629      20.40615210       1.61728156      -6.91803646       0.20261911
O        1.86532327      -0.25049742       0.33418856      -1.51269865       8.22881508      -4.23100376
Si       2.50902898      -0.00937642       2.28854869       1.20927584     -10.68816376       6.11174583
O        2.80738984      -0.26446081       4.71682937     -12.29714489      19.83975983      10.35625362
Bi       2.14565422      -0.09728782       7.19950126       4.08417368      26.57484627     -31.37995148
O        2.60519505       0.36390135       9.52806517       9.51164436      22.52211189      -0.32896578
O        2.24546825       0.30495395      11.04160306      26.49887466     -14.12307930      13.93908119
O        2.38111671      -0.05815523      13.45979239      93.06134033      34.51761246      31.51539421
O        2.50223783      -0.36591976      16.58817857       9.70786667      -3.08162570      -9.28065205
Mg       1.78616895      -0.54299631      18.40642372       3.71763420      -0.16636264      -3.87058306
O        2.59010287       0.27911617      20.40557178      -0.74014866       0.57972646      -2.32238317
O        2.23059102       1.83480438       0.03390159       1.44370842       1.51109433       0.22428934
O        1.93322992       2.67215754       2.17030285       0.58974224       3.35346651      -0.39919573
O        1.86686738       2.09234446       4.65679129      -7.94379759       4.02869034      -5.10723019
O        1.98386575       1.86874071       6.81723296     -38.88735962     104.76935577      12.94111919
Li       2.34569059       2.00921101       8.73360231      21.42655754     -36.92676544       0.70981503
Si       2.33983274       1.58846896      10.55089322      23.32805634     -12.49844074       6.10238075
Mg       1.91480800       2.14060897      13.55542498      17.83214569      -1.64207745      -1.63693976
O        2.89585312       2.61960872      15.58093856      -2.76315355      -4.79953861       6.56684494
O        2.22755533       1.78772249      17.88024383      -1.31944704       0.71596986       4.67129469
Si       2.10698340       2.38038009      19.75461738       4.01776981      -2.61884403      -2.78898478
O        2.46833489       5.15757670      -0.04862823       4.52141666      -3.93644428       3.68331289
Si       2.41569761       4.78075769       2.05664898      -4.88976574      -3.64605832       4.88690758
O        2.33610835       4.47786215       4.51637722     -47.60240555      26.08844185     155.89366150
Bi       1.88936422       4.48239493       6.93096803    -374.36151123     -96.86288452      82.40048218
Bi       2.88604231       4.90079713       9.90715546     259.36999512     -94.98278046     -27.55893517
O        1.89295187       4.86244680      11.26260561      23.62009239      57.63336182      93.97768402
O        3.21538010       4.11064313      13.04088395       1.02923262       0.38075542      11.25679588
O        1.96800108       3.52230097      15.41731996      -2.50708508       2.46289849      -0.69544721
O        1.89657053       4.53938564      18.04134914       0.21167196       0.05126333       0.57398701
O        3.07510065       4.89717060      19.86657189      -3.72815681       0.52044839      -1.07208371
O        1.83427693       6.92818791      -0.59042297      -1.64002919       1.61313522       0.79442787
O        3.05512708       7.23564300       2.02621668       2.38533449      -3.14269447      -7.21523046
Bi       1.46998532       7.31372899       4.42030913      20.74219131       8.86846542    -161.07391357
O        2.78923261       5.99467056       6.44001398     -84.67655182    -122.34549713     -48.00178528
O        2.23821038       6.72926229       8.74282512     -29.54725647      36.54008865     -27.63309097
Li       2.51465909       6.23086570      11.11690691      11.23544216      36.97855377      71.65824890
Li       2.28975807       6.93821322      13.73463422     -36.21243286     -15.15419769       2.58731961
Bi       1.73309770       6.02206012      16.22385514      -4.11049271     -19.66901207       5.43387604
Li       2.38467783       6.37345238      18.58220526      -0.33785436      -2.14325142       0.16988412
Li       2.28779459       7.23557362      20.15478110      -0.17479375      -4.91426563       4.32385731
Li       3.15764262       9.72924577      -0.11133687      -4.14558983      -8.17471886       1.64639378
Bi       2.67054565       9.23285402       2.84811635      -6.67597866      -5.57004356      -5.84603739
O        1.80458010       9.25126245       4.94552132      15.43466949      61.16331863      10.64359570
Si       1.44949149       8.41492340       5.79634719     -17.30839920     -55.39150238      47.26229858
O        2.11563606       9.26515695       9.61593983      16.38448143       3.77982140     -55.71530151
O        2.26922949       9.67269889      10.56328948       8.25982761      31.03288078      50.78823853
O        1.47433337       8.91944720      13.58816821      14.23139763      10.67845917       8.85821819
Bi       2.22146391       8.01972195      15.61260425       7.63942146      18.85341644       4.73419380
O        1.65268838       9.24374055      18.05246403       0.05053462      -0.11190413       2.37176323
Si       1.81573022       8.71446372      19.65086967      -2.31656694       4.94730091      -3.90085220
O        2.20839179      11.60738632      -0.44073103     208.73957825     -56.43227386      40.57360077
Mg       2.46149183      10.94321293       1.88145786       2.80441236       8.92381287     -10.60984421
O        2.18829790      10.71735788       4.22453521      32.45476913       4.50121307       1.70002508
Si       1.70034806      12.05895082       6.72395622      -3.34444475      -5.60101938      -0.89975667
O        1.92315168      11.27601526       8.89401924       4.92696381       1.10047245      -0.30231291
O        2.13724508      11.45496604      11.51908449      -0.08939850      -9.85429287      -2.26480317
Si       1.99880499      10.92278452      13.29337217      -5.64811277      -8.16979408       0.46436971
O        1.20661528      10.50271155      16.26373343      -0.15955567       2.07661462       1.52867997
Li       2.97171709      11.06894574      18.14635074       1.20812321       0.83359355      -1.23988187
O        2.37537295      12.55721289      20.62516776      61.43603134       2.85175109     -46.73217773
O        2.17875855      12.98920446      -0.71833003    -101.27030182     114.16127014      36.78530884
O        2.32702173      13.07813692       1.60000107      -8.58556843       6.68013048      -5.75668287
O        1.94691321      12.93269877       5.22663352      -0.99246228       0.11285645      -1.66466081
O        2.63010717      13.41264357       7.37018371     -80.96781158     -52.67686844      53.27090836
O        2.27067414      13.03120721       9.62540818       7.72102070       2.74258471      -7.19045496
O        2.47706940      12.95250171      11.09517926      -1.40471852     -16.20172882     -13.76957417
Si       1.84445007      12.79801996      13.83057023      -7.47847176      49.03005981     -13.25424957
O        3.08998204      12.79097446      15.90419724      36.20558929      63.15209961     -27.57581139
Si       1.94508781      13.19854270      17.62358378      -2.42904115       2.58653831       2.96319318
Si       1.84965730      13.43805494      19.75294147      -5.98654270     -33.87657928       8.51637459
Si       2.35710905      15.63005973      -0.10682203      61.48015976      57.41635513      21.25705719
O        1.83021100      15.39448939       2.57387859       9.47681808      -5.30883789      -5.72451496
Li       2.46004620      15.21525489       4.51651797      -5.76385593      -3.90153837      -4.78581095
O        2.57209230      14.90609837       6.95117389       6.85406303      73.01854706       4.24267006
O        1.93982760      15.90766081       8.60293586      77.17130280      35.87806320      25.06188583
Si       1.42914484      14.92448597      11.20202992     134.45834351     -17.74662018     142.42500305
Bi       2.35182031      15.24786530      13.70191431    -557.00939941    -132.25198364      61.54149246
Bi       1.49308201      15.62292726      15.11086371      62.27265167      39.74024200     -75.76318359
O        1.94460036      15.67361616      17.50373317      21.40148544     -16.73980904       3.59760070
O        2.06409767      16.10232577      19.86657987      -1.47438526     -54.47891235       2.62588882
O        2.60978936      17.38328175       0.23692580      -3.34044504      -6.08487797      -1.99589348
O        2.88074793      16.78314281       1.87969210      -2.58641148      -5.75791454       8.19957447
Si       2.49420411      17.79769603       4.63805940      10.48543358      -1.20602608     -17.97908211
O        1.96630453      17.92717273       6.63866191     103.70750427     -13.70996094      51.44636536
O        2.75964239      18.00165753       9.09599260    1206.07727051    -582.78601074     735.65686035
Mg       2.05113600      17.67058957      10.98684692    -672.39898682     130.14146423     -11.45007133
Si       2.41326406      17.70013797      13.54612729    1231.67968750     135.76576233      60.89443970
Si       3.16496174      18.27800492      15.50555754    1330.03161621     -16.04385948   -1369.04174805
O        2.77312394      17.70592304      16.97701507    -100.94845581     -69.89980316     -13.06306744
O        1.78518363      17.05199303      19.96738726     -21.91677094      40.04870224       7.09339523
O        2.24431160      20.87430483       0.14616584       3.60905504       2.76938963     -14.83237648
O        2.13807922      20.49546805       1.24725584      -0.29190069      -9.21980858      13.82936573
O        2.34146812      20.46917712       3.81091171      29.43856049     -45.43965149      14.03749752
Mg       2.74748182      20.27609253       6.52249214     -30.38515854      47.00352097     -16.26257324
Bi       2.51883312      21.14000911       9.02564910    -290.46182251      30.23424149      44.54214096
Si       2.34762468      19.91897224      10.80039285    1076.36694336    -395.52844238     296.66067505
Si       2.60874537      19.74109967      13.44812494    1944.01464844    -869.51068115    -388.84243774
Bi       2.02234993      20.33878239      15.80169419     -90.80797577       5.19394302      34.66009903
O        2.70007407      19.89650129      17.76781717       7.65709162      12.75418854      -6.93891764
Li       1.79834925      19.92587762      20.29330740       0.64028639      -1.10516822      -0.70947695
Li       4.81066562      -0.41240636       0.38889731       0.86012948      -0.82110262      -0.13135070
O        5.07839336       0.18495823       3.07536194       1.95057309      19.31928825     -10.08400726
O        4.12606399      -0.55622304       3.67658712      -5.74032211     114.38684082     -26.97660828
O        5.14117691       0.29266889       6.68331839       0.14434084       3.94299316      -6.57110310
O        4.59752547      -0.50370213      10.03837551    -577.24468994     783.53784180    -341.96633911
O        4.53054387       0.04780923      11.50498422    -130.03599548     392.05776978    -159.09318542
Mg       4.68720321       0.10030179      13.06278228     144.98971558     -77.59449768    -164.45802307
O        4.68295022       0.84162496      16.25415197     -34.99755859     -11.08802605      11.92158318
O        5.18461380      -0.22862214      17.44593536      -3.23018789      -7.74340391      -5.56764030
O        4.41587125       0.02491997      20.61391169      -0.84671342      -0.41438589       0.10769032
Li       3.71521794       2.92006754      -0.07067547      -6.25950718     -10.77887726      -4.32726192
Mg       4.28121008       1.78342950       1.49599347      -3.76964331      -3.26573110       1.35009170
O        4.84027257       2.26885542       3.89524656       5.30557632       1.90532076       1.81028152
O        3.89286033       2.08603153       7.45455876     -13.51279259      35.87959290      -8.79741287
O        4.35604011       1.56383721       8.83439087      -0.79850984      -7.76880312      15.21705914
Si       4.35016183       1.02999623      11.15598963      30.50815010    -215.33486938      27.54499435
O        4.36867272       2.54754688      14.24299046     -66.23657990      56.21582794     -87.49188995
Bi       4.97611012       2.11570197      15.15782029      57.96581268     -42.07994843      61.03945160
O        5.62292451       2.26252820      17.89473062     -14.88072014      -8.39049625      -3.70728016
O        4.46133704       2.32465010      20.06001929      -0.47801989       0.00774789       1.84658539
Si       4.21558285       4.22760555      -0.01465283       1.48938036      14.21692085      -1.72058392
O        4.22910332       4.15333465       2.28365392       0.65314865       0.55542952      -2.21426821
O        4.35811490       5.14473680       3.28656867       5.07008266       1.27520823      -3.53026199
Li       4.96024236       5.02940653       5.78094425      -8.96699047       3.70560384       0.75373763
O        4.31864518       4.30599448       8.31464081     -52.55286026      -6.08165073     -42.25627899
Li       4.12430160       3.97546150      11.96394743       9.19306564      -5.63936996      -4.29983616
O        4.89039447       5.04082557      13.73911324     -63.38939285      15.47861385      -3.46139669
Si       3.96719734       4.23757662      15.87131488      -0.64242321       6.61979103       4.58196163
O        3.92557383       4.79098774      17.78102087      -0.88630146      -0.61550605      -4.37671185
O        4.30451014       4.79008287      20.32326046       2.57381344       1.77771449       2.33789420
Si       4.31063778       7.22651034      -0.48341296     -21.46595764     -52.22632599      18.45708466
O        4.74759495       6.97341870       2.09763239       4.80775356      -5.27343607       0.46883333
O        4.61800635       6.14869982       4.88534607       9.18719673       7.61391592      -6.37197590
O        4.38948356       6.47440951       7.17748326      18.90697098      -0.04827023      39.39068604
Li       4.15724918       6.07835325       8.24803434      25.91179657      10.27659130     -18.60694885
Li       4.74313127       6.13555588      11.96505516      -2.91694164      -3.18136692      -8.21064091
Bi       3.54118035       7.46690751      13.51071873      40.86934280      13.48283672     -12.70960426
O        4.42887770       6.46449356      15.83094728       0.54473132      -1.00042021       0.83718562
Mg       4.45529796       7.20154705      17.93956482       0.42616552     -19.30631638     -10.25542545
Si       4.53936326       6.54555178      20.09908627       6.67559910      -9.66215992      -7.22818995
Li       4.60983784       8.17960395      -0.60294850      20.17523384      55.77951813      -8.01496220
Bi       4.80455997       9.02067795       2.15376385      11.48581314       3.83949304      -6.97637463
O        4.48036857       9.09970125       4.23073927      -0.46718556       1.42398143      -0.18213430
O        4.12406366       9.03184298       6.27064710       0.85588032       1.06729138      -0.98704594
Si       4.65471153       8.18283061       9.40449064       2.46374154      -2.69036102      -4.60228682
Li       4.68343384       9.05871418      11.61970679     -15.87399101     -13.06821251     -29.27248764
Si       5.21699635       9.39789760      12.59321881      15.75377083      -1.81595993      36.26832962
Li       3.89990641       8.66484050      15.66411841       7.79876661       4.55376625       1.33861613
Li       4.70363981       8.61973239      17.97201755       3.04200745      13.83144283      -5.91414452
Si       4.13430384       8.67080067      19.49552671      -2.26687479       8.44544220      10.41834831
Li       4.05926043      10.57583540      -0.43642310       5.88900471       2.49113226      -0.07974765
O        4.94343253      10.75553504       3.41303985      36.61530304     -68.92279053     -89.99314880
O        4.69265557      11.26317345       4.08852835     -30.89902306      68.63961792      94.21704102
O        4.78531407      10.92287878       6.76274803       0.05205548      -0.49797571      -1.67325759
Si       5.61701515      11.13740149       9.45823666       5.63673067      21.88416862       0.31362295
Si       4.15765112      11.16467293      11.97223580      -3.35205173     -18.58084106      -3.46106839
O        4.19174998      11.99081879      13.73287652       6.95268011     -36.88909531     -12.48601055
O        4.22060117      11.46314758      16.08737364       7.84179401      11.82576466     -11.07048798
O        4.75021183      10.47809494      17.56332414       0.71016812      -0.49584964       0.45592585
Li       4.36143091      11.14703143      20.40213900      -1.46151316       0.36183423      -2.43377781
O        4.55160169      12.81919847       0.17003245       0.93220711       0.38334972       1.39462554
O        4.74519131      13.66671388       2.71940173       2.01369095      -0.44306245       1.80457461
Li       4.84505252      13.62169626       4.44070904      -4.71162939     -10.71913052      -6.99106169
Bi       3.72945466      13.60834538       6.80094879      46.50195694     -44.17903137     -64.28137970
Si       4.59363522      12.84529278       8.46082907      27.10558701     -63.07212830       7.08907318
O        4.94522770      13.40253267      11.48573109    2889.80859375    5350.28710938    1018.69354248
O        4.48656014      13.43256932      13.83501672    2485.55712891    4020.99414062   -1378.61828613
Si       4.24103380      13.45898725      15.44575907    -238.42720032    -308.78466797      46.15282822
O        4.27781338      13.27813127      17.98784045      -1.05966604      11.93742943     -13.45262909
Si       4.25801868      13.97797049      19.72449717      -5.82830191      -2.25134516       5.51194811
O        4.38854733      15.45574842       0.64704413      -0.69597143     -18.88821793     -22.52557182
Li       4.56006060      16.11396959       1.57182088       6.02640009      23.20141411      34.14359665
O        4.59393330      16.05144940       4.50851042     410.28018188     128.86544800    -240.71560669
Bi       4.94698465      15.41954463       7.33858285    -558.69049072    -368.04061890    -288.43664551
O        5.50171705      15.49114706       8.74909934    2157.30102539    1657.65917969    4930.98242188
Li       5.11290447      16.35811876      10.94336243  -17960.82421875    -480.57766724   -9365.28906250
Mg       4.27287423      15.52012156      12.81856823  -17950.57421875   -9269.09667969    4142.82763672
O        4.06354744      15.20463533      15.30724232    3021.53491211    1710.35461426   -2580.50585938
Li       4.45662255      15.75717971      18.58191276       1.16131842      -4.15510750       6.97991323
O        4.02565024      16.09263950      20.02888381       0.98914915      -3.74898291       3.73137593
O        4.44993629      18.19029834      -0.50180205     -24.35100555      -0.09113979     102.64030457
O        4.64302551      17.96337338       2.45628386     -15.11155224     117.81197357      43.42942810