100
Lattice="10.454527762314287 0.0 0.0 0.0 10.454527762314287 0.0 0.0 0.0 10.454527762314287" Properties=species:S:1:pos:R:3:forces:R:3:energies:R:1 energy=-636.3291015625 stress="-0.04722956568002701 -0.010399426333606243 -0.013722073286771774 -0.010399426333606243 -0.04771600663661957 0.007953993044793606 -0.013722073286771774 0.007953993044793606 -0.03788412734866142" free_energy=-636.3291015625 pbc="T T T"
O       -1.54129314       0.58473755       0.38118657       0.00991073      -0.04152417      -0.12061335      -6.64164448
O        0.86134886      -0.40029124       1.43934151      -0.08701903      -0.03430397      -0.05328401      -7.54236317
O        0.05022276      -0.18572549       4.45112417       0.02371682       0.03893510      -0.02847587      -6.58554029
O        0.55479422       1.76964958       6.25205174      -0.18086980       0.10842328      -0.08892965      -7.45698452
O       -0.07615537       1.93057654       9.11507102       0.04089633      -0.01065964       0.11391211      -7.60150528
Si      -1.43308548       1.07072117      -1.14556927       0.10144755      -0.07179368      -0.08520530      -7.55120611
Bi      -0.52338014       1.00218049       2.47698856      -0.09092657       0.08529347       0.03414047      -3.97790122
O       -2.11678506       3.88423886       6.45756947      -0.13244370       0.04377860      -0.10043313      -7.24277925
Li      -0.90528263       0.38221708       6.05710207      -0.10752188      -0.00290387      -0.02977316      -4.11469650
Li       1.40652825       1.91393693       7.97358778      -0.05037549       0.04284529      -0.07698536      -3.98776317
Mg      -1.21359166       3.66248973      -1.13688349       0.07799699       0.11946620      -0.02350563      -4.02261162
Si       0.26793604       3.68333982       1.66366124       0.27167454      -0.26656774      -0.02280639      -7.34584332
O       -0.31928705       3.65989467       3.20566046      -0.06283554       0.02074299       0.12770617      -7.24446630
Si      -0.54413361       4.31481214       6.50485712       0.00314534       0.11896110       0.00740469      -6.57856894
O       -0.05256619       4.45387247       8.04162612      -0.09100751      -0.01100864      -0.00267339      -7.87939310
Li      -1.44170071       8.09151221       1.03000096       0.12702236       0.05350910       0.02153568      -4.17573786
O       -0.46634234       6.53743238       1.60528192       0.29030654       0.09557320       0.07650292      -7.02883101
O       -0.34531699       5.88828001       5.96368839      -0.06942093       0.05165647       0.06325021      -7.87228966
Li       0.98732446       7.08357528       6.63209533       0.14441645      -0.02516823       0.04795055      -4.05535316
Si      -1.12990948       8.70413093       8.62629977       0.04537714       0.06621143      -0.02305728      -5.79717970
O       -0.31286083       8.54501303      -0.48089053      -0.06183114       0.00365087      -0.10379094      -7.44060421
O       -1.80508264       9.40774235       2.47597812      -0.14912166       0.04318441      -0.03829012      -7.63313103
Bi      -0.28926357       8.31490653       3.76906155      -0.09150217      -0.02750012      -0.12613943      -3.84085751
Si      -1.58465099       7.00115867       6.02118773       0.06375654       0.15844005       0.15617853      -7.03772068
O       -0.58074252       7.73140316       7.44752675       0.15357366       0.09053683      -0.07161936      -7.76825094
Mg       1.10930926       0.84813529      -0.16426297       0.06305289      -0.03164159      -0.02123910      -3.59479141
Si       2.29259215      -1.19720258       1.76652716       0.19250061      -0.25076422       0.24760467      -7.42571640
O        1.91589418      -1.65978038       3.47331396      -0.15262732       0.16038574      -0.02681327      -7.32059765
Li       1.67627645      -0.18969928       6.84598247      -0.06168110      -0.09970234      -0.02772205      -3.65450788
O        1.67279481      -0.06281742       8.64541107       0.06257963      -0.04821000       0.04125367      -6.88901615
Li       3.53451159       3.33889450      -0.01363116       0.11758606      -0.19080490       0.00422669      -3.91453409
O        1.02283874       2.27053544       1.21718350      -0.11125308       0.21792527       0.13419849      -7.88745689
O        1.37966371       1.93009754       3.78212472       0.08096990      -0.07904294       0.04169488      -7.71554947
Si       0.78192799       2.80935199       5.00958079       0.03523762       0.05935216      -0.10540522      -5.77898121
O        2.66257850       3.31076395       8.71661012      -0.00160602       0.01338208       0.01652606      -7.84274006
Li       3.58286028       4.47009278       2.51343693       0.06362350      -0.07844677       0.00698461      -3.97982311
O        1.49305796       4.76433534       1.38362974       0.09814045       0.17244676       0.08532545      -8.10116291
O        1.51913454       5.82333626       3.98026523      -0.02450448       0.01916282       0.17390692      -7.22718716
Si       1.96805628       4.78500793       5.16593243       0.09084478       0.00653708       0.06078648      -6.41122293
Mg       1.71650748       5.03000921       8.52438106       0.04562414      -0.02022433       0.00401284      -3.96622515
O        1.45732513       6.41814997      -0.60204924      -0.32090467      -0.07380176       0.32773757      -7.89263868
Si       1.03013639       6.34098897       0.98527375      -0.07380989      -0.08968557       0.03314766      -7.39940023
Li      -0.40446098       5.48629237       3.61762251      -0.10992267       0.03795280      -0.02533667      -4.13474941
O        2.09743095       5.52929946       6.63596634       0.14932293      -0.02771354       0.08197261      -7.94401932
Si       3.51911575       6.76304044       6.97572306       0.10676918      -0.12475617      -0.06220105      -7.32386875
Mg       3.75993407       7.23665092      -0.17976104       0.10793170       0.08619204       0.32935017      -4.24265766
O        2.03646859       7.47941245       1.58546479       0.30705324      -0.08123434      -0.06495823      -7.52624846
Bi       3.30615644       7.21730608       3.95717738       0.06828105       0.05545768      -0.23053619      -3.88919544
O        2.52564948       7.77661946       5.87549499       0.08168983      -0.12798923       0.16964418      -6.39337921
Mg       1.58225530       8.52832998       9.36316072       0.00273627      -0.20706117      -0.15626217      -3.86237764
Bi       6.22809170       1.86936590       0.16792226      -0.04724076      -0.08253822       0.06723522      -4.01122761
Li       4.65301258      -0.59103961       1.21692318      -0.04856125      -0.01328256      -0.13192594      -4.05857563
Mg       2.08607669       0.17643883       4.15375165      -0.02682482      -0.14612740      -0.06385840      -4.09192276
Si       4.61014131       0.03443335       6.19148974      -0.01675856       0.05923742      -0.02352095      -5.31591797
Li       3.49797381      -0.31728047       8.99173094       0.06874911       0.15519677       0.15687992      -3.81458998
O        3.23509406       0.01460107       2.48221765      -0.18518329      -0.24735227      -0.11072615      -7.25977087
Li       2.64820811       1.82612339       2.15288906      -0.03010693       0.02221269       0.03001602      -3.94783878
O        5.97505061       2.74947939       4.78905131       0.08354241       0.10001065       0.16440845      -8.39393425
Si       4.29563274       3.15329087       4.83340750      -0.11212632      -0.25791878       0.05499465      -6.46021795
O        4.61842789       0.63609671       7.78223194      -0.16273841       0.04317650      -0.02099976      -7.84576178
O        4.19285577       1.70385269       0.63904742      -0.11074767      -0.22929882      -0.11859748      -6.24852419
O        3.86733828       2.56006210       3.42776144       0.03604503       0.10782131       0.02657971      -7.36403847
O        3.64504468       4.67549543       4.74099279      -0.11471468      -0.04695725      -0.32909253      -8.14094353
Si       4.06291727       3.64982735       7.92845047       0.01279806       0.05300852      -0.12935482      -7.57804728
O        5.34182857       3.16686682       8.78462844      -0.02729523      -0.12427054      -0.25071266      -7.00209618
O        4.88604468       4.58698509       0.89523721       0.24501535      -0.18058759       0.00271305      -5.37668753
O        4.25380984       5.82948266       1.21399230      -0.19858123      -0.32071161      -0.16313876      -4.93730640
O        4.83780654       6.92369466       5.91544780       0.30360478      -0.12827143       0.02017239      -7.36084747
O        4.12834148       5.29590028       7.78801770       0.19221623      -0.27046975      -0.05925588      -7.30169392
O        5.32462104       7.22448184       9.19410875       0.00136262       0.25633842       0.02459574      -5.48822021
O        3.06558886       9.17269041       0.23495028      -0.20807514       0.14638638      -0.20554560      -7.93960476
Si       6.02853050       7.36708974       2.48598646       0.08102228      -0.11659431      -0.04851425      -7.51543522
O        4.72814351       8.15898245       2.02213368       0.08253245      -0.07972106      -0.37501708      -6.87679148
O        3.12041414      10.41854018       5.71397783      -0.00832865      -0.03776212       0.04001297      -8.10385323
O        3.04156601       7.65475255       8.27868789      -0.07089271      -0.22898318       0.10254654      -7.54288626
O        6.51420998      -0.09187493      -0.99906609      -0.08312890       0.05637429      -0.11079547      -7.29634142
O        6.23565459       0.22553578       2.04650119       0.00271487      -0.04946068      -0.06166017      -7.62962818
Si       7.19985832      -0.55276908       3.06012197      -0.02462786       0.04792617       0.05783752      -7.30670261
O        7.07119745       1.18171736       6.83872465      -0.01445669       0.08161154      -0.07419476      -7.70439482
O        9.02052608      -0.20692240       8.16145650      -0.00181788       0.21842322      -0.03379714      -8.38498878
O        7.90180251       2.20527762      -1.48530603       0.11050519       0.10811901      -0.05565095      -7.59159994
O        7.51793629       0.51798875       4.31323131      -0.15336230       0.04536247       0.00546682      -8.15790462
Si       6.39670210       1.21370436       5.30458283      -0.08815336      -0.00490206       0.03736863      -6.07546997
Si       6.21918280       0.19267792       7.92006357      -0.07899947       0.10307107       0.03545681      -6.71186256
Li       7.00230744       3.53231437       8.04891238       0.07161861      -0.01009595      -0.01441463      -4.14119816
O        7.56997299       4.96554297      -0.89138105       0.05419501       0.01915509       0.15344615      -6.97100258
Bi       7.25566673       4.82468710       1.30466144      -0.05709270      -0.03150393       0.06874365      -3.77784371
Li       4.66867657       1.20628974       2.50917941       0.01265664      -0.07789461      -0.01428112      -3.86107516
Bi       6.76316488       5.08125807       5.27801258      -0.25562674       0.23454866       0.14488080      -3.33697891
O        3.96008000       2.85479078       6.42483549       0.02723578       0.23943299      -0.02447277      -7.93084717
O        9.41132502       3.88135463       0.74035947       0.04932003       0.12028374       0.30802864      -7.70155239
O        5.88850993       5.93367219       3.27907020       0.00735879      -0.01645261       0.02564716      -7.16366291
O        8.33295329       6.28629893       4.47091355      -0.11129960      -0.08544108       0.06157559      -6.59519577
O        7.47171144       6.63384751       6.86266493       0.06327844       0.08623572       0.03192875      -7.96276855
Bi       7.26888121       7.06953277       9.20256293       0.03710771       0.03660218       0.03853873      -3.92861319
O        7.16894731       7.11325417       1.29550009       0.11874133       0.06934458       0.07741678      -7.72226667
O        6.58751292       8.48336064       3.68980544      -0.24440545       0.03294915      -0.05057338      -8.47933292
Mg       6.47647083       8.03784138       5.66383998       0.08489137       0.16110569       0.00198147      -4.13447714
O        8.66215372       8.54444826       5.49641428      -0.06782217       0.18036941       0.04376298      -6.81335545
O        5.85060832       9.36564226       6.86114970      -0.19354397       0.05479962      -0.00303134      -8.23196125
